bcc Fe, ferromagnetic, spin-polarized   
   1.00000000000000     
     2.831000    0.000000    0.000000
     0.000000    2.831000    0.000000
     0.000000    0.000000    2.831000
  Fe/           
               2
Direct
  0.000000  0.000000  0.000000
  0.500000  0.500000  0.500000
 
   36   36   36
 0.19217806813E+03 0.18748539241E+03 0.17405554696E+03 0.15368748959E+03 0.12894377241E+03
 0.10264602327E+03 0.77394187681E+02 0.55211585103E+02 0.37354780008E+02 0.24276670515E+02
 0.15709084486E+02 0.10828868298E+02 0.84727051892E+01 0.73660189256E+01 0.66073222899E+01
 0.60896888230E+01 0.57765456585E+01 0.56156415526E+01 0.55668763514E+01 0.56156415526E+01
 0.57765456585E+01 0.60896888230E+01 0.66073222899E+01 0.73660189256E+01 0.84727051892E+01
 0.10828868298E+02 0.15709084486E+02 0.24276670515E+02 0.37354780008E+02 0.55211585103E+02
 0.77394187681E+02 0.10264602327E+03 0.12894377241E+03 0.15368748959E+03 0.17405554696E+03
 0.18748539241E+03 0.18748539241E+03 0.18292316779E+03 0.16986189953E+03 0.15003920814E+03
 0.12593571421E+03 0.10029207454E+03 0.75645257319E+02 0.53981085013E+02 0.36541974548E+02
 0.23782243129E+02 0.15442369883E+02 0.10709802770E+02 0.84323132455E+01 0.73485611328E+01
 0.65967476412E+01 0.60849344516E+01 0.57756325673E+01 0.56167584501E+01 0.55686110464E+01
 0.56167584501E+01 0.57756325673E+01 0.60849344516E+01 0.65967476412E+01 0.73485611328E+01
 0.84323132455E+01 0.10709802770E+02 0.15442369883E+02 0.23782243129E+02 0.36541974548E+02
 0.53981085013E+02 0.75645257319E+02 0.10029207454E+03 0.12593571421E+03 0.15003920814E+03
 0.16986189953E+03 0.18292316779E+03 0.17405554696E+03 0.16986189953E+03 0.15784297677E+03
 0.13956552267E+03 0.11728141547E+03 0.93504224034E+02 0.70592556914E+02 0.50423521346E+02
 0.34195156904E+02 0.22361045388E+02 0.14682505311E+02 0.10375414362E+02 0.83196446929E+01
 0.72962013229E+01 0.65655499570E+01 0.60711495257E+01 0.57731903494E+01 0.56202658871E+01
 0.55739223498E+01 0.56202658871E+01 0.57731903494E+01 0.60711495257E+01 0.65655499570E+01
 0.72962013229E+01 0.83196446929E+01 0.10375414362E+02 0.14682505311E+02 0.22361045388E+02
 0.34195156904E+02 0.50423521346E+02 0.70592556914E+02 0.93504224034E+02 0.11728141547E+03
 0.13956552267E+03 0.15784297677E+03 0.16986189953E+03 0.15368748959E+03 0.15003920814E+03
 0.13956552267E+03 0.12358773747E+03 0.10402755526E+03 0.83067419813E+02 0.62800384303E+02
 0.44933928278E+02 0.30586811384E+02 0.20197275575E+02 0.13546912190E+02 0.98896524083E+01
 0.81558711788E+01 0.72095065870E+01 0.65153696579E+01 0.60496553858E+01 0.57699500436E+01
 0.56264688032E+01 0.55829678449E+01 0.56264688032E+01 0.57699500436E+01 0.60496553858E+01
 0.65153696579E+01 0.72095065870E+01 0.81558711788E+01 0.98896524083E+01 0.13546912190E+02
 0.20197275575E+02 0.30586811384E+02 0.44933928278E+02 0.62800384303E+02 0.83067419813E+02
 0.10402755526E+03 0.12358773747E+03 0.13956552267E+03 0.15003920814E+03 0.12894377241E+03
 0.12593571421E+03 0.11728141547E+03 0.10402755526E+03 0.87723052728E+02 0.70169784076E+02
 0.53144918349E+02 0.38139718654E+02 0.26154520247E+02 0.17583940710E+02 0.12215468774E+02
 0.93423458079E+01 0.79617686233E+01 0.70908589153E+01 0.64490730514E+01 0.60223143328E+01
 0.57666743572E+01 0.56354143892E+01 0.55955554719E+01 0.56354143892E+01 0.57666743572E+01
 0.60223143328E+01 0.64490730514E+01 0.70908589153E+01 0.79617686233E+01 0.93423458079E+01
 0.12215468774E+02 0.17583940710E+02 0.26154520247E+02 0.38139718654E+02 0.53144918349E+02
 0.70169784076E+02 0.87723052728E+02 0.10402755526E+03 0.11728141547E+03 0.12593571421E+03
 0.10264602327E+03 0.10029207454E+03 0.93504224034E+02 0.83067419813E+02 0.70169784076E+02
 0.56234145945E+02 0.42706800275E+02 0.30831963188E+02 0.21452447808E+02 0.14883362035E+02
 0.10896044132E+02 0.88205622946E+01 0.77380575989E+01 0.69456536049E+01 0.63707320025E+01
 0.59911309860E+01 0.57637074096E+01 0.56464711277E+01 0.56107397639E+01 0.56464711277E+01
 0.57637074096E+01 0.59911309860E+01 0.63707320025E+01 0.69456536049E+01 0.77380575989E+01
 0.88205622946E+01 0.10896044132E+02 0.14883362035E+02 0.21452447808E+02 0.30831963188E+02
 0.42706800275E+02 0.56234145945E+02 0.70169784076E+02 0.83067419813E+02 0.93504224034E+02
 0.10029207454E+03 0.77394187681E+02 0.75645257319E+02 0.70592556914E+02 0.62800384303E+02
 0.53144918349E+02 0.42706800275E+02 0.32613006877E+02 0.23845577557E+02 0.17058089860E+02
 0.12453670040E+02 0.97682766541E+01 0.83694365288E+01 0.74774763699E+01 0.67825709381E+01
 0.62852871850E+01 0.59578630135E+01 0.57606892307E+01 0.56581403609E+01 0.56266698200E+01
 0.56581403609E+01 0.57606892307E+01 0.59578630135E+01 0.62852871850E+01 0.67825709381E+01
 0.74774763699E+01 0.83694365288E+01 0.97682766541E+01 0.12453670040E+02 0.17058089860E+02
 0.23845577557E+02 0.32613006877E+02 0.42706800275E+02 0.53144918349E+02 0.62800384303E+02
 0.70592556914E+02 0.75645257319E+02 0.55211585103E+02 0.53981085013E+02 0.50423521346E+02
 0.44933928278E+02 0.38139718654E+02 0.30831963188E+02 0.23845577557E+02 0.17900741630E+02
 0.13445450080E+02 0.10553241283E+02 0.89182376115E+01 0.79560401375E+01 0.71963269340E+01
 0.66124867392E+01 0.61978455742E+01 0.59237290787E+01 0.57565647270E+01 0.56682412588E+01
 0.56408320024E+01 0.56682412588E+01 0.57565647270E+01 0.59237290787E+01 0.61978455742E+01
 0.66124867392E+01 0.71963269340E+01 0.79560401375E+01 0.89182376115E+01 0.10553241283E+02
 0.13445450080E+02 0.17900741630E+02 0.23845577557E+02 0.30831963188E+02 0.38139718654E+02
 0.44933928278E+02 0.50423521346E+02 0.53981085013E+02 0.37354780008E+02 0.36541974548E+02
 0.34195156904E+02 0.30586811384E+02 0.26154520247E+02 0.21452447808E+02 0.17058089860E+02
 0.13445450080E+02 0.10861658379E+02 0.92551233863E+01 0.82894357254E+01 0.75341184186E+01
 0.69154592302E+01 0.64463104791E+01 0.61127785908E+01 0.58892742755E+01 0.57498826120E+01
 0.56744310610E+01 0.56506386339E+01 0.56744310610E+01 0.57498826120E+01 0.58892742755E+01
 0.61127785908E+01 0.64463104791E+01 0.69154592302E+01 0.75341184186E+01 0.82894357254E+01
 0.92551233863E+01 0.10861658379E+02 0.13445450080E+02 0.17058089860E+02 0.21452447808E+02
 0.26154520247E+02 0.30586811384E+02 0.34195156904E+02 0.36541974548E+02 0.24276670515E+02
 0.23782243129E+02 0.22361045388E+02 0.20197275575E+02 0.17583940710E+02 0.14883362035E+02
 0.12453670040E+02 0.10553241283E+02 0.92551233863E+01 0.84093769376E+01 0.77243357922E+01
 0.71306723208E+01 0.66534689513E+01 0.62926396039E+01 0.60329517757E+01 0.58544247092E+01
 0.57392649537E+01 0.56748680696E+01 0.56541475873E+01 0.56748680696E+01 0.57392649537E+01
 0.58544247092E+01 0.60329517757E+01 0.62926396039E+01 0.66534689513E+01 0.71306723208E+01
 0.77243357922E+01 0.84093769376E+01 0.92551233863E+01 0.10553241283E+02 0.12453670040E+02
 0.14883362035E+02 0.17583940710E+02 0.20197275575E+02 0.22361045388E+02 0.23782243129E+02
 0.15709084486E+02 0.15442369883E+02 0.14682505311E+02 0.13546912190E+02 0.12215468774E+02
 0.10896044132E+02 0.97682766541E+01 0.89182376115E+01 0.82894357254E+01 0.77243357922E+01
 0.72086231317E+01 0.67716144714E+01 0.64226778422E+01 0.61562333651E+01 0.59594160795E+01
 0.58187288733E+01 0.57238795601E+01 0.56687684160E+01 0.56506386339E+01 0.56687684160E+01
 0.57238795601E+01 0.58187288733E+01 0.59594160795E+01 0.61562333651E+01 0.64226778422E+01
 0.67716144714E+01 0.72086231317E+01 0.77243357922E+01 0.82894357254E+01 0.89182376115E+01
 0.97682766541E+01 0.10896044132E+02 0.12215468774E+02 0.13546912190E+02 0.14682505311E+02
 0.15442369883E+02 0.10828868298E+02 0.10709802770E+02 0.10375414362E+02 0.98896524083E+01
 0.93423458079E+01 0.88205622946E+01 0.83694365288E+01 0.79560401375E+01 0.75341184186E+01
 0.71306723208E+01 0.67716144714E+01 0.64701978203E+01 0.62277484943E+01 0.60378941449E+01
 0.58917177463E+01 0.57817411510E+01 0.57037676441E+01 0.56566577052E+01 0.56408320024E+01
 0.56566577052E+01 0.57037676441E+01 0.57817411510E+01 0.58917177463E+01 0.60378941449E+01
 0.62277484943E+01 0.64701978203E+01 0.67716144714E+01 0.71306723208E+01 0.75341184186E+01
 0.79560401375E+01 0.83694365288E+01 0.88205622946E+01 0.93423458079E+01 0.98896524083E+01
 0.10375414362E+02 0.10709802770E+02 0.84727051892E+01 0.84323132455E+01 0.83196446929E+01
 0.81558711788E+01 0.79617686233E+01 0.77380575989E+01 0.74774763699E+01 0.71963269340E+01
 0.69154592302E+01 0.66534689513E+01 0.64226778422E+01 0.62277484943E+01 0.60670471390E+01
 0.59356826645E+01 0.58287322933E+01 0.57434572027E+01 0.56799400943E+01 0.56402355381E+01
 0.56266698200E+01 0.56402355381E+01 0.56799400943E+01 0.57434572027E+01 0.58287322933E+01
 0.59356826645E+01 0.60670471390E+01 0.62277484943E+01 0.64226778422E+01 0.66534689513E+01
 0.69154592302E+01 0.71963269340E+01 0.74774763699E+01 0.77380575989E+01 0.79617686233E+01
 0.81558711788E+01 0.83196446929E+01 0.84323132455E+01 0.73660189256E+01 0.73485611328E+01
 0.72962013229E+01 0.72095065870E+01 0.70908589153E+01 0.69456536049E+01 0.67825709381E+01
 0.66124867392E+01 0.64463104791E+01 0.62926396039E+01 0.61562333651E+01 0.60378941449E+01
 0.59356826645E+01 0.58468560276E+01 0.57697147469E+01 0.57046745350E+01 0.56542287333E+01
 0.56219081346E+01 0.56107397639E+01 0.56219081346E+01 0.56542287333E+01 0.57046745350E+01
 0.57697147469E+01 0.58468560276E+01 0.59356826645E+01 0.60378941449E+01 0.61562333651E+01
 0.62926396039E+01 0.64463104791E+01 0.66124867392E+01 0.67825709381E+01 0.69456536049E+01
 0.70908589153E+01 0.72095065870E+01 0.72962013229E+01 0.73485611328E+01 0.66073222899E+01
 0.65967476412E+01 0.65655499570E+01 0.65153696579E+01 0.64490730514E+01 0.63707320025E+01
 0.62852871850E+01 0.61978455742E+01 0.61127785908E+01 0.60329517757E+01 0.59594160795E+01
 0.58917177463E+01 0.58287322933E+01 0.57697147469E+01 0.57151626598E+01 0.56671450301E+01
 0.56289485367E+01 0.56041630595E+01 0.55955554719E+01 0.56041630595E+01 0.56289485367E+01
 0.56671450301E+01 0.57151626598E+01 0.57697147469E+01 0.58287322933E+01 0.58917177463E+01
 0.59594160795E+01 0.60329517757E+01 0.61127785908E+01 0.61978455742E+01 0.62852871850E+01
 0.63707320025E+01 0.64490730514E+01 0.65153696579E+01 0.65655499570E+01 0.65967476412E+01
 0.60896888230E+01 0.60849344516E+01 0.60711495257E+01 0.60496553858E+01 0.60223143328E+01
 0.59911309860E+01 0.59578630135E+01 0.59237290787E+01 0.58892742755E+01 0.58544247092E+01
 0.58187288733E+01 0.57817411510E+01 0.57434572027E+01 0.57046745350E+01 0.56671450301E+01
 0.56334318415E+01 0.56064801426E+01 0.55890185911E+01 0.55829678449E+01 0.55890185911E+01
 0.56064801426E+01 0.56334318415E+01 0.56671450301E+01 0.57046745350E+01 0.57434572027E+01
 0.57817411510E+01 0.58187288733E+01 0.58544247092E+01 0.58892742755E+01 0.59237290787E+01
 0.59578630135E+01 0.59911309860E+01 0.60223143328E+01 0.60496553858E+01 0.60711495257E+01
 0.60849344516E+01 0.57765456585E+01 0.57756325673E+01 0.57731903494E+01 0.57699500436E+01
 0.57666743572E+01 0.57637074096E+01 0.57606892307E+01 0.57565647270E+01 0.57498826120E+01
 0.57392649537E+01 0.57238795601E+01 0.57037676441E+01 0.56799400943E+01 0.56542287333E+01
 0.56289485367E+01 0.56064801426E+01 0.55888989589E+01 0.55777414822E+01 0.55739223498E+01
 0.55777414822E+01 0.55888989589E+01 0.56064801426E+01 0.56289485367E+01 0.56542287333E+01
 0.56799400943E+01 0.57037676441E+01 0.57238795601E+01 0.57392649537E+01 0.57498826120E+01
 0.57565647270E+01 0.57606892307E+01 0.57637074096E+01 0.57666743572E+01 0.57699500436E+01
 0.57731903494E+01 0.57756325673E+01 0.56156415526E+01 0.56167584501E+01 0.56202658871E+01
 0.56264688032E+01 0.56354143892E+01 0.56464711277E+01 0.56581403609E+01 0.56682412588E+01
 0.56744310610E+01 0.56748680696E+01 0.56687684160E+01 0.56566577052E+01 0.56402355381E+01
 0.56219081346E+01 0.56041630595E+01 0.55890185911E+01 0.55777414822E+01 0.55708943533E+01
 0.55686110464E+01 0.55708943533E+01 0.55777414822E+01 0.55890185911E+01 0.56041630595E+01
 0.56219081346E+01 0.56402355381E+01 0.56566577052E+01 0.56687684160E+01 0.56748680696E+01
 0.56744310610E+01 0.56682412588E+01 0.56581403609E+01 0.56464711277E+01 0.56354143892E+01
 0.56264688032E+01 0.56202658871E+01 0.56167584501E+01 0.55668763514E+01 0.55686110464E+01
 0.55739223498E+01 0.55829678449E+01 0.55955554719E+01 0.56107397639E+01 0.56266698200E+01
 0.56408320024E+01 0.56506386339E+01 0.56541475873E+01 0.56506386339E+01 0.56408320024E+01
 0.56266698200E+01 0.56107397639E+01 0.55955554719E+01 0.55829678449E+01 0.55739223498E+01
 0.55686110464E+01 0.55668763514E+01 0.55686110464E+01 0.55739223498E+01 0.55829678449E+01
 0.55955554719E+01 0.56107397639E+01 0.56266698200E+01 0.56408320024E+01 0.56506386339E+01
 0.56541475873E+01 0.56506386339E+01 0.56408320024E+01 0.56266698200E+01 0.56107397639E+01
 0.55955554719E+01 0.55829678449E+01 0.55739223498E+01 0.55686110464E+01 0.56156415526E+01
 0.56167584501E+01 0.56202658871E+01 0.56264688032E+01 0.56354143892E+01 0.56464711277E+01
 0.56581403609E+01 0.56682412588E+01 0.56744310610E+01 0.56748680696E+01 0.56687684160E+01
 0.56566577052E+01 0.56402355381E+01 0.56219081346E+01 0.56041630595E+01 0.55890185911E+01
 0.55777414822E+01 0.55708943533E+01 0.55686110464E+01 0.55708943533E+01 0.55777414822E+01
 0.55890185911E+01 0.56041630595E+01 0.56219081346E+01 0.56402355381E+01 0.56566577052E+01
 0.56687684160E+01 0.56748680696E+01 0.56744310610E+01 0.56682412588E+01 0.56581403609E+01
 0.56464711277E+01 0.56354143892E+01 0.56264688032E+01 0.56202658871E+01 0.56167584501E+01
 0.57765456585E+01 0.57756325673E+01 0.57731903494E+01 0.57699500436E+01 0.57666743572E+01
 0.57637074096E+01 0.57606892307E+01 0.57565647270E+01 0.57498826120E+01 0.57392649537E+01
 0.57238795601E+01 0.57037676441E+01 0.56799400943E+01 0.56542287333E+01 0.56289485367E+01
 0.56064801426E+01 0.55888989589E+01 0.55777414822E+01 0.55739223498E+01 0.55777414822E+01
 0.55888989589E+01 0.56064801426E+01 0.56289485367E+01 0.56542287333E+01 0.56799400943E+01
 0.57037676441E+01 0.57238795601E+01 0.57392649537E+01 0.57498826120E+01 0.57565647270E+01
 0.57606892307E+01 0.57637074096E+01 0.57666743572E+01 0.57699500436E+01 0.57731903494E+01
 0.57756325673E+01 0.60896888230E+01 0.60849344516E+01 0.60711495257E+01 0.60496553858E+01
 0.60223143328E+01 0.59911309860E+01 0.59578630135E+01 0.59237290787E+01 0.58892742755E+01
 0.58544247092E+01 0.58187288733E+01 0.57817411510E+01 0.57434572027E+01 0.57046745350E+01
 0.56671450301E+01 0.56334318415E+01 0.56064801426E+01 0.55890185911E+01 0.55829678449E+01
 0.55890185911E+01 0.56064801426E+01 0.56334318415E+01 0.56671450301E+01 0.57046745350E+01
 0.57434572027E+01 0.57817411510E+01 0.58187288733E+01 0.58544247092E+01 0.58892742755E+01
 0.59237290787E+01 0.59578630135E+01 0.59911309860E+01 0.60223143328E+01 0.60496553858E+01
 0.60711495257E+01 0.60849344516E+01 0.66073222899E+01 0.65967476412E+01 0.65655499570E+01
 0.65153696579E+01 0.64490730514E+01 0.63707320025E+01 0.62852871850E+01 0.61978455742E+01
 0.61127785908E+01 0.60329517757E+01 0.59594160795E+01 0.58917177463E+01 0.58287322933E+01
 0.57697147469E+01 0.57151626598E+01 0.56671450301E+01 0.56289485367E+01 0.56041630595E+01
 0.55955554719E+01 0.56041630595E+01 0.56289485367E+01 0.56671450301E+01 0.57151626598E+01
 0.57697147469E+01 0.58287322933E+01 0.58917177463E+01 0.59594160795E+01 0.60329517757E+01
 0.61127785908E+01 0.61978455742E+01 0.62852871850E+01 0.63707320025E+01 0.64490730514E+01
 0.65153696579E+01 0.65655499570E+01 0.65967476412E+01 0.73660189256E+01 0.73485611328E+01
 0.72962013229E+01 0.72095065870E+01 0.70908589153E+01 0.69456536049E+01 0.67825709381E+01
 0.66124867392E+01 0.64463104791E+01 0.62926396039E+01 0.61562333651E+01 0.60378941449E+01
 0.59356826645E+01 0.58468560276E+01 0.57697147469E+01 0.57046745350E+01 0.56542287333E+01
 0.56219081346E+01 0.56107397639E+01 0.56219081346E+01 0.56542287333E+01 0.57046745350E+01
 0.57697147469E+01 0.58468560276E+01 0.59356826645E+01 0.60378941449E+01 0.61562333651E+01
 0.62926396039E+01 0.64463104791E+01 0.66124867392E+01 0.67825709381E+01 0.69456536049E+01
 0.70908589153E+01 0.72095065870E+01 0.72962013229E+01 0.73485611328E+01 0.84727051892E+01
 0.84323132455E+01 0.83196446929E+01 0.81558711788E+01 0.79617686233E+01 0.77380575989E+01
 0.74774763699E+01 0.71963269340E+01 0.69154592302E+01 0.66534689513E+01 0.64226778422E+01
 0.62277484943E+01 0.60670471390E+01 0.59356826645E+01 0.58287322933E+01 0.57434572027E+01
 0.56799400943E+01 0.56402355381E+01 0.56266698200E+01 0.56402355381E+01 0.56799400943E+01
 0.57434572027E+01 0.58287322933E+01 0.59356826645E+01 0.60670471390E+01 0.62277484943E+01
 0.64226778422E+01 0.66534689513E+01 0.69154592302E+01 0.71963269340E+01 0.74774763699E+01
 0.77380575989E+01 0.79617686233E+01 0.81558711788E+01 0.83196446929E+01 0.84323132455E+01
 0.10828868298E+02 0.10709802770E+02 0.10375414362E+02 0.98896524083E+01 0.93423458079E+01
 0.88205622946E+01 0.83694365288E+01 0.79560401375E+01 0.75341184186E+01 0.71306723208E+01
 0.67716144714E+01 0.64701978203E+01 0.62277484943E+01 0.60378941449E+01 0.58917177463E+01
 0.57817411510E+01 0.57037676441E+01 0.56566577052E+01 0.56408320024E+01 0.56566577052E+01
 0.57037676441E+01 0.57817411510E+01 0.58917177463E+01 0.60378941449E+01 0.62277484943E+01
 0.64701978203E+01 0.67716144714E+01 0.71306723208E+01 0.75341184186E+01 0.79560401375E+01
 0.83694365288E+01 0.88205622946E+01 0.93423458079E+01 0.98896524083E+01 0.10375414362E+02
 0.10709802770E+02 0.15709084486E+02 0.15442369883E+02 0.14682505311E+02 0.13546912190E+02
 0.12215468774E+02 0.10896044132E+02 0.97682766541E+01 0.89182376115E+01 0.82894357254E+01
 0.77243357922E+01 0.72086231317E+01 0.67716144714E+01 0.64226778422E+01 0.61562333651E+01
 0.59594160795E+01 0.58187288733E+01 0.57238795601E+01 0.56687684160E+01 0.56506386339E+01
 0.56687684160E+01 0.57238795601E+01 0.58187288733E+01 0.59594160795E+01 0.61562333651E+01
 0.64226778422E+01 0.67716144714E+01 0.72086231317E+01 0.77243357922E+01 0.82894357254E+01
 0.89182376115E+01 0.97682766541E+01 0.10896044132E+02 0.12215468774E+02 0.13546912190E+02
 0.14682505311E+02 0.15442369883E+02 0.24276670515E+02 0.23782243129E+02 0.22361045388E+02
 0.20197275575E+02 0.17583940710E+02 0.14883362035E+02 0.12453670040E+02 0.10553241283E+02
 0.92551233863E+01 0.84093769376E+01 0.77243357922E+01 0.71306723208E+01 0.66534689513E+01
 0.62926396039E+01 0.60329517757E+01 0.58544247092E+01 0.57392649537E+01 0.56748680696E+01
 0.56541475873E+01 0.56748680696E+01 0.57392649537E+01 0.58544247092E+01 0.60329517757E+01
 0.62926396039E+01 0.66534689513E+01 0.71306723208E+01 0.77243357922E+01 0.84093769376E+01
 0.92551233863E+01 0.10553241283E+02 0.12453670040E+02 0.14883362035E+02 0.17583940710E+02
 0.20197275575E+02 0.22361045388E+02 0.23782243129E+02 0.37354780008E+02 0.36541974548E+02
 0.34195156904E+02 0.30586811384E+02 0.26154520247E+02 0.21452447808E+02 0.17058089860E+02
 0.13445450080E+02 0.10861658379E+02 0.92551233863E+01 0.82894357254E+01 0.75341184186E+01
 0.69154592302E+01 0.64463104791E+01 0.61127785908E+01 0.58892742755E+01 0.57498826120E+01
 0.56744310610E+01 0.56506386339E+01 0.56744310610E+01 0.57498826120E+01 0.58892742755E+01
 0.61127785908E+01 0.64463104791E+01 0.69154592302E+01 0.75341184186E+01 0.82894357254E+01
 0.92551233863E+01 0.10861658379E+02 0.13445450080E+02 0.17058089860E+02 0.21452447808E+02
 0.26154520247E+02 0.30586811384E+02 0.34195156904E+02 0.36541974548E+02 0.55211585103E+02
 0.53981085013E+02 0.50423521346E+02 0.44933928278E+02 0.38139718654E+02 0.30831963188E+02
 0.23845577557E+02 0.17900741630E+02 0.13445450080E+02 0.10553241283E+02 0.89182376115E+01
 0.79560401375E+01 0.71963269340E+01 0.66124867392E+01 0.61978455742E+01 0.59237290787E+01
 0.57565647270E+01 0.56682412588E+01 0.56408320024E+01 0.56682412588E+01 0.57565647270E+01
 0.59237290787E+01 0.61978455742E+01 0.66124867392E+01 0.71963269340E+01 0.79560401375E+01
 0.89182376115E+01 0.10553241283E+02 0.13445450080E+02 0.17900741630E+02 0.23845577557E+02
 0.30831963188E+02 0.38139718654E+02 0.44933928278E+02 0.50423521346E+02 0.53981085013E+02
 0.77394187681E+02 0.75645257319E+02 0.70592556914E+02 0.62800384303E+02 0.53144918349E+02
 0.42706800275E+02 0.32613006877E+02 0.23845577557E+02 0.17058089860E+02 0.12453670040E+02
 0.97682766541E+01 0.83694365288E+01 0.74774763699E+01 0.67825709381E+01 0.62852871850E+01
 0.59578630135E+01 0.57606892307E+01 0.56581403609E+01 0.56266698200E+01 0.56581403609E+01
 0.57606892307E+01 0.59578630135E+01 0.62852871850E+01 0.67825709381E+01 0.74774763699E+01
 0.83694365288E+01 0.97682766541E+01 0.12453670040E+02 0.17058089860E+02 0.23845577557E+02
 0.32613006877E+02 0.42706800275E+02 0.53144918349E+02 0.62800384303E+02 0.70592556914E+02
 0.75645257319E+02 0.10264602327E+03 0.10029207454E+03 0.93504224034E+02 0.83067419813E+02
 0.70169784076E+02 0.56234145945E+02 0.42706800275E+02 0.30831963188E+02 0.21452447808E+02
 0.14883362035E+02 0.10896044132E+02 0.88205622946E+01 0.77380575989E+01 0.69456536049E+01
 0.63707320025E+01 0.59911309860E+01 0.57637074096E+01 0.56464711277E+01 0.56107397639E+01
 0.56464711277E+01 0.57637074096E+01 0.59911309860E+01 0.63707320025E+01 0.69456536049E+01
 0.77380575989E+01 0.88205622946E+01 0.10896044132E+02 0.14883362035E+02 0.21452447808E+02
 0.30831963188E+02 0.42706800275E+02 0.56234145945E+02 0.70169784076E+02 0.83067419813E+02
 0.93504224034E+02 0.10029207454E+03 0.12894377241E+03 0.12593571421E+03 0.11728141547E+03
 0.10402755526E+03 0.87723052728E+02 0.70169784076E+02 0.53144918349E+02 0.38139718654E+02
 0.26154520247E+02 0.17583940710E+02 0.12215468774E+02 0.93423458079E+01 0.79617686233E+01
 0.70908589153E+01 0.64490730514E+01 0.60223143328E+01 0.57666743572E+01 0.56354143892E+01
 0.55955554719E+01 0.56354143892E+01 0.57666743572E+01 0.60223143328E+01 0.64490730514E+01
 0.70908589153E+01 0.79617686233E+01 0.93423458079E+01 0.12215468774E+02 0.17583940710E+02
 0.26154520247E+02 0.38139718654E+02 0.53144918349E+02 0.70169784076E+02 0.87723052728E+02
 0.10402755526E+03 0.11728141547E+03 0.12593571421E+03 0.15368748959E+03 0.15003920814E+03
 0.13956552267E+03 0.12358773747E+03 0.10402755526E+03 0.83067419813E+02 0.62800384303E+02
 0.44933928278E+02 0.30586811384E+02 0.20197275575E+02 0.13546912190E+02 0.98896524083E+01
 0.81558711788E+01 0.72095065870E+01 0.65153696579E+01 0.60496553858E+01 0.57699500436E+01
 0.56264688032E+01 0.55829678449E+01 0.56264688032E+01 0.57699500436E+01 0.60496553858E+01
 0.65153696579E+01 0.72095065870E+01 0.81558711788E+01 0.98896524083E+01 0.13546912190E+02
 0.20197275575E+02 0.30586811384E+02 0.44933928278E+02 0.62800384303E+02 0.83067419813E+02
 0.10402755526E+03 0.12358773747E+03 0.13956552267E+03 0.15003920814E+03 0.17405554696E+03
 0.16986189953E+03 0.15784297677E+03 0.13956552267E+03 0.11728141547E+03 0.93504224034E+02
 0.70592556914E+02 0.50423521346E+02 0.34195156904E+02 0.22361045388E+02 0.14682505311E+02
 0.10375414362E+02 0.83196446929E+01 0.72962013229E+01 0.65655499570E+01 0.60711495257E+01
 0.57731903494E+01 0.56202658871E+01 0.55739223498E+01 0.56202658871E+01 0.57731903494E+01
 0.60711495257E+01 0.65655499570E+01 0.72962013229E+01 0.83196446929E+01 0.10375414362E+02
 0.14682505311E+02 0.22361045388E+02 0.34195156904E+02 0.50423521346E+02 0.70592556914E+02
 0.93504224034E+02 0.11728141547E+03 0.13956552267E+03 0.15784297677E+03 0.16986189953E+03
 0.18748539241E+03 0.18292316779E+03 0.16986189953E+03 0.15003920814E+03 0.12593571421E+03
 0.10029207454E+03 0.75645257319E+02 0.53981085013E+02 0.36541974548E+02 0.23782243129E+02
 0.15442369883E+02 0.10709802770E+02 0.84323132455E+01 0.73485611328E+01 0.65967476412E+01
 0.60849344516E+01 0.57756325673E+01 0.56167584501E+01 0.55686110464E+01 0.56167584501E+01
 0.57756325673E+01 0.60849344516E+01 0.65967476412E+01 0.73485611328E+01 0.84323132455E+01
 0.10709802770E+02 0.15442369883E+02 0.23782243129E+02 0.36541974548E+02 0.53981085013E+02
 0.75645257319E+02 0.10029207454E+03 0.12593571421E+03 0.15003920814E+03 0.16986189953E+03
 0.18292316779E+03 0.18748539241E+03 0.18292316779E+03 0.16986189953E+03 0.15003920814E+03
 0.12593571421E+03 0.10029207454E+03 0.75645257319E+02 0.53981085013E+02 0.36541974548E+02
 0.23782243129E+02 0.15442369883E+02 0.10709802770E+02 0.84323132455E+01 0.73485611328E+01
 0.65967476412E+01 0.60849344516E+01 0.57756325673E+01 0.56167584501E+01 0.55686110464E+01
 0.56167584501E+01 0.57756325673E+01 0.60849344516E+01 0.65967476412E+01 0.73485611328E+01
 0.84323132455E+01 0.10709802770E+02 0.15442369883E+02 0.23782243129E+02 0.36541974548E+02
 0.53981085013E+02 0.75645257319E+02 0.10029207454E+03 0.12593571421E+03 0.15003920814E+03
 0.16986189953E+03 0.18292316779E+03 0.18292316779E+03 0.17848685693E+03 0.16578151786E+03
 0.14648599093E+03 0.12300231324E+03 0.97993322307E+02 0.73935180562E+02 0.52777072376E+02
 0.35746998018E+02 0.23299757460E+02 0.15183454742E+02 0.10595390917E+02 0.83940833916E+01
 0.73317380258E+01 0.65868571197E+01 0.60808277265E+01 0.57753163455E+01 0.56184363810E+01
 0.55708943533E+01 0.56184363810E+01 0.57753163455E+01 0.60808277265E+01 0.65868571197E+01
 0.73317380258E+01 0.83940833916E+01 0.10595390917E+02 0.15183454742E+02 0.23299757460E+02
 0.35746998018E+02 0.52777072376E+02 0.73935180562E+02 0.97993322307E+02 0.12300231324E+03
 0.14648599093E+03 0.16578151786E+03 0.17848685693E+03 0.16986189953E+03 0.16578151786E+03
 0.15408324153E+03 0.13628215117E+03 0.11456083848E+03 0.91363791857E+02 0.68994823617E+02
 0.49296797301E+02 0.33452582959E+02 0.21913736947E+02 0.14446420979E+02 0.10274379555E+02
 0.82873540359E+01 0.72812343693E+01 0.65576193857E+01 0.60688777535E+01 0.57745536871E+01
 0.56235164181E+01 0.55777414822E+01 0.56235164181E+01 0.57745536871E+01 0.60688777535E+01
 0.65576193857E+01 0.72812343693E+01 0.82873540359E+01 0.10274379555E+02 0.14446420979E+02
 0.21913736947E+02 0.33452582959E+02 0.49296797301E+02 0.68994823617E+02 0.91363791857E+02
 0.11456083848E+03 0.13628215117E+03 0.15408324153E+03 0.16578151786E+03 0.15003920814E+03
 0.14648599093E+03 0.13628215117E+03 0.12070748366E+03 0.10162765002E+03 0.81168434649E+02
 0.61376616553E+02 0.43928844046E+02 0.29927738553E+02 0.19806123342E+02 0.13346754927E+02
 0.98088714255E+01 0.81316753065E+01 0.71974778402E+01 0.65104214280E+01 0.60501150838E+01
 0.57737794284E+01 0.56320102827E+01 0.55890185911E+01 0.56320102827E+01 0.57737794284E+01
 0.60501150838E+01 0.65104214280E+01 0.71974778402E+01 0.81316753065E+01 0.98088714255E+01
 0.13346754927E+02 0.19806123342E+02 0.29927738553E+02 0.43928844046E+02 0.61376616553E+02
 0.81168434649E+02 0.10162765002E+03 0.12070748366E+03 0.13628215117E+03 0.14648599093E+03
 0.12593571421E+03 0.12300231324E+03 0.11456083848E+03 0.10162765002E+03 0.85710192601E+02
 0.68567305240E+02 0.51939232696E+02 0.37290222938E+02 0.25603638238E+02 0.17265372164E+02
 0.12060559577E+02 0.92854437273E+01 0.79452606859E+01 0.70826330011E+01 0.64477794755E+01
 0.60260166831E+01 0.57733728708E+01 0.56435906589E+01 0.56041630595E+01 0.56435906589E+01
 0.57733728708E+01 0.60260166831E+01 0.64477794755E+01 0.70826330011E+01 0.79452606859E+01
 0.92854437273E+01 0.12060559577E+02 0.17265372164E+02 0.25603638238E+02 0.37290222938E+02
 0.51939232696E+02 0.68567305240E+02 0.85710192601E+02 0.10162765002E+03 0.11456083848E+03
 0.12300231324E+03 0.10029207454E+03 0.97993322307E+02 0.91363791857E+02 0.81168434649E+02
 0.68567305240E+02 0.54952727059E+02 0.41742724378E+02 0.30158230138E+02 0.21024799965E+02
 0.14646491207E+02 0.10789876044E+02 0.87866446088E+01 0.77264348861E+01 0.69418235747E+01
 0.63734035678E+01 0.59982198434E+01 0.57733310530E+01 0.56572976818E+01 0.56219081346E+01
 0.56572976818E+01 0.57733310530E+01 0.59982198434E+01 0.63734035678E+01 0.69418235747E+01
 0.77264348861E+01 0.87866446088E+01 0.10789876044E+02 0.14646491207E+02 0.21024799965E+02
 0.30158230138E+02 0.41742724378E+02 0.54952727059E+02 0.68567305240E+02 0.81168434649E+02
 0.91363791857E+02 0.97993322307E+02 0.75645257319E+02 0.73935180562E+02 0.68994823617E+02
 0.61376616553E+02 0.51939232696E+02 0.41742724378E+02 0.31892818262E+02 0.23351705723E+02
 0.16756298261E+02 0.12297920159E+02 0.97069974699E+01 0.83525098893E+01 0.74707755488E+01
 0.67834383902E+01 0.62919396405E+01 0.59682294834E+01 0.57730858148E+01 0.56714547969E+01
 0.56402355381E+01 0.56714547969E+01 0.57730858148E+01 0.59682294834E+01 0.62919396405E+01
 0.67834383902E+01 0.74707755488E+01 0.83525098893E+01 0.97069974699E+01 0.12297920159E+02
 0.16756298261E+02 0.23351705723E+02 0.31892818262E+02 0.41742724378E+02 0.51939232696E+02
 0.61376616553E+02 0.68994823617E+02 0.73935180562E+02 0.53981085013E+02 0.52777072376E+02
 0.49296797301E+02 0.43928844046E+02 0.37290222938E+02 0.30158230138E+02 0.23351705723E+02
 0.17574132994E+02 0.13258489326E+02 0.10467471263E+02 0.88905459437E+01 0.79467666329E+01
 0.71950825528E+01 0.66180831583E+01 0.62083162928E+01 0.59371732785E+01 0.57715561018E+01
 0.56838942629E+01 0.56566577052E+01 0.56838942629E+01 0.57715561018E+01 0.59371732785E+01
 0.62083162928E+01 0.66180831583E+01 0.71950825528E+01 0.79467666329E+01 0.88905459437E+01
 0.10467471263E+02 0.13258489326E+02 0.17574132994E+02 0.23351705723E+02 0.30158230138E+02
 0.37290222938E+02 0.43928844046E+02 0.49296797301E+02 0.52777072376E+02 0.36541974548E+02
 0.35746998018E+02 0.33452582959E+02 0.29927738553E+02 0.25603638238E+02 0.21024799965E+02
 0.16756298261E+02 0.13258489326E+02 0.10766104208E+02 0.92190769625E+01 0.82784078685E+01
 0.75310537349E+01 0.69198066761E+01 0.64564578768E+01 0.61268511709E+01 0.59056531293E+01
 0.57674189968E+01 0.56924418122E+01 0.56687684160E+01 0.56924418122E+01 0.57674189968E+01
 0.59056531293E+01 0.61268511709E+01 0.64564578768E+01 0.69198066761E+01 0.75310537349E+01
 0.82784078685E+01 0.92190769625E+01 0.10766104208E+02 0.13258489326E+02 0.16756298261E+02
 0.21024799965E+02 0.25603638238E+02 0.29927738553E+02 0.33452582959E+02 0.35746998018E+02
 0.23782243129E+02 0.23299757460E+02 0.21913736947E+02 0.19806123342E+02 0.17265372164E+02
 0.14646491207E+02 0.12297920159E+02 0.10467471263E+02 0.92190769625E+01 0.83974806816E+01