O  H 
 1.0000000000000000
     4.0000000000000000    0.0000000000000000    0.0000000000000000
     0.0000000000000000    4.0000000000000000    0.0000000000000000
     0.0000000000000000    0.0000000000000000    4.0000000000000000
 O   H  
   1   2
Direct
  0.5000000000000000  0.5000000000000000  0.5000000000000000
  0.6899999999999999  0.6475000000000000  0.5000000000000000
  0.3100000000000000  0.6475000000000000  0.5000000000000000

   20   20   20
  3.9322959061E-04  8.7321130816E-04  1.7745796360E-03  3.3004610969E-03  5.6176764802E-03
  8.7506802231E-03  1.2474693526E-02  1.6274997787E-02  1.9431886886E-02  2.1233030888E-02
  2.1233030888E-02  1.9431886886E-02  1.6274997787E-02  1.2474693526E-02  8.7506802231E-03
  5.6176764802E-03  3.3004610969E-03  1.7745796360E-03  8.7321130816E-04  3.9322959061E-04
  8.7321130816E-04  1.9390656423E-03  3.9406571692E-03  7.3290515790E-03  1.2474693526E-02
  1.9431886886E-02  2.7701484610E-02  3.6140495138E-02  4.3150728665E-02  4.7150375050E-02
  4.7150375050E-02  4.3150728665E-02  3.6140495138E-02  2.7701484610E-02  1.9431886886E-02
  1.2474693526E-02  7.3290515790E-03  3.9406571692E-03  1.9390656423E-03  8.7321130816E-04
  1.7745796360E-03  3.9406571692E-03  8.0083822777E-03  1.4894431121E-02  2.5351638131E-02
  3.9490362109E-02  5.6296213776E-02  7.3446353829E-02  8.7692868441E-02  9.5821131280E-02
  9.5821131280E-02  8.7692868441E-02  7.3446353829E-02  5.6296213776E-02  3.9490362109E-02
  2.5351638131E-02  1.4894431121E-02  8.0083822777E-03  3.9406571692E-03  1.7745796360E-03
  3.3004610969E-03  7.3290515790E-03  1.4894431121E-02  2.7701484610E-02  4.7150375050E-02
  7.3446353829E-02  1.0470280381E-01  1.3659958032E-01  1.6309603407E-01  1.7821342567E-01
  1.7821342567E-01  1.6309603407E-01  1.3659958032E-01  1.0470280381E-01  7.3446353829E-02
  4.7150375050E-02  2.7701484610E-02  1.4894431121E-02  7.3290515790E-03  3.3004610969E-03
  5.6176764802E-03  1.2474693526E-02  2.5351638131E-02  4.7150375050E-02  8.0254105464E-02
  1.2501218537E-01  1.7821342567E-01  2.3250455831E-01  2.7760386433E-01  3.0333500091E-01
  3.0333500091E-01  2.7760386433E-01  2.3250455831E-01  1.7821342567E-01  1.2501218537E-01
  8.0254105464E-02  4.7150375050E-02  2.5351638131E-02  1.2474693526E-02  5.6176764802E-03
  8.7506802231E-03  1.9431886886E-02  3.9490362109E-02  7.3446353829E-02  1.2501218537E-01
  1.9473205017E-01  2.7760386433E-01  3.6217340877E-01  4.3242480304E-01  4.7250631160E-01
  4.7250631160E-01  4.3242480304E-01  3.6217340877E-01  2.7760386433E-01  1.9473205017E-01
  1.2501218537E-01  7.3446353829E-02  3.9490362109E-02  1.9431886886E-02  8.7506802231E-03
  1.2474693526E-02  2.7701484610E-02  5.6296213776E-02  1.0470280381E-01  1.7821342567E-01
  2.7760386433E-01  3.9574330690E-01  5.1630298015E-01  6.1645115045E-01  6.7359008395E-01
  6.7359008395E-01  6.1645115045E-01  5.1630298015E-01  3.9574330690E-01  2.7760386433E-01
  1.7821342567E-01  1.0470280381E-01  5.6296213776E-02  2.7701484610E-02  1.2474693526E-02
  1.6274997787E-02  3.6140495138E-02  7.3446353829E-02  1.3659958032E-01  2.3250455831E-01
  3.6217340877E-01  5.1630298015E-01  6.7359008395E-01  8.0424750223E-01  8.7879330284E-01
  8.7879330284E-01  8.0424750223E-01  6.7359008395E-01  5.1630298015E-01  3.6217340877E-01
  2.3250455831E-01  1.3659958032E-01  7.3446353829E-02  3.6140495138E-02  1.6274997787E-02
  1.9431886886E-02  4.3150728665E-02  8.7692868441E-02  1.6309603407E-01  2.7760386433E-01
  4.3242480304E-01  6.1645115045E-01  8.0424750223E-01  9.6024876295E-01  1.0492543397E+00
  1.0492543397E+00  9.6024876295E-01  8.0424750223E-01  6.1645115045E-01  4.3242480304E-01
  2.7760386433E-01  1.6309603407E-01  8.7692868441E-02  4.3150728665E-02  1.9431886886E-02
  2.1233030888E-02  4.7150375050E-02  9.5821131280E-02  1.7821342567E-01  3.0333500091E-01
  4.7250631160E-01  6.7359008395E-01  8.7879330284E-01  1.0492543397E+00  1.1465098545E+00
  1.1465098545E+00  1.0492543397E+00  8.7879330284E-01  6.7359008395E-01  4.7250631160E-01
  3.0333500091E-01  1.7821342567E-01  9.5821131280E-02  4.7150375050E-02  2.1233030888E-02
  2.1233030888E-02  4.7150375050E-02  9.5821131280E-02  1.7821342567E-01  3.0333500091E-01
  4.7250631160E-01  6.7359008395E-01  8.7879330284E-01  1.0492543397E+00  1.1465098545E+00
  1.1465098545E+00  1.0492543397E+00  8.7879330284E-01  6.7359008395E-01  4.7250631160E-01
  3.0333500091E-01  1.7821342567E-01  9.5821131280E-02  4.7150375050E-02  2.1233030888E-02
  1.9431886886E-02  4.3150728665E-02  8.7692868441E-02  1.6309603407E-01  2.7760386433E-01
  4.3242480304E-01  6.1645115045E-01  8.0424750223E-01  9.6024876295E-01  1.0492543397E+00
  1.0492543397E+00  9.6024876295E-01  8.0424750223E-01  6.1645115045E-01  4.3242480304E-01
  2.7760386433E-01  1.6309603407E-01  8.7692868441E-02  4.3150728665E-02  1.9431886886E-02
  1.6274997787E-02  3.6140495138E-02  7.3446353829E-02  1.3659958032E-01  2.3250455831E-01
  3.6217340877E-01  5.1630298015E-01  6.7359008395E-01  8.0424750223E-01  8.7879330284E-01
  8.7879330284E-01  8.0424750223E-01  6.7359008395E-01  5.1630298015E-01  3.6217340877E-01
  2.3250455831E-01  1.3659958032E-01  7.3446353829E-02  3.6140495138E-02  1.6274997787E-02
  1.2474693526E-02  2.7701484610E-02  5.6296213776E-02  1.0470280381E-01  1.7821342567E-01
  2.7760386433E-01  3.9574330690E-01  5.1630298015E-01  6.1645115045E-01  6.7359008395E-01
  6.7359008395E-01  6.1645115045E-01  5.1630298015E-01  3.9574330690E-01  2.7760386433E-01
  1.7821342567E-01  1.0470280381E-01  5.6296213776E-02  2.7701484610E-02  1.2474693526E-02
  8.7506802231E-03  1.9431886886E-02  3.9490362109E-02  7.3446353829E-02  1.2501218537E-01
  1.9473205017E-01  2.7760386433E-01  3.6217340877E-01  4.3242480304E-01  4.7250631160E-01
  4.7250631160E-01  4.3242480304E-01  3.6217340877E-01  2.7760386433E-01  1.9473205017E-01
  1.2501218537E-01  7.3446353829E-02  3.9490362109E-02  1.9431886886E-02  8.7506802231E-03
  5.6176764802E-03  1.2474693526E-02  2.5351638131E-02  4.7150375050E-02  8.0254105464E-02
  1.2501218537E-01  1.7821342567E-01  2.3250455831E-01  2.7760386433E-01  3.0333500091E-01
  3.0333500091E-01  2.7760386433E-01  2.3250455831E-01  1.7821342567E-01  1.2501218537E-01
  8.0254105464E-02  4.7150375050E-02  2.5351638131E-02  1.2474693526E-02  5.6176764802E-03
  3.3004610969E-03  7.3290515790E-03  1.4894431121E-02  2.7701484610E-02  4.7150375050E-02
  7.3446353829E-02  1.0470280381E-01  1.3659958032E-01  1.6309603407E-01  1.7821342567E-01
  1.7821342567E-01  1.6309603407E-01  1.3659958032E-01  1.0470280381E-01  7.3446353829E-02
  4.7150375050E-02  2.7701484610E-02  1.4894431121E-02  7.3290515790E-03  3.3004610969E-03
  1.7745796360E-03  3.9406571692E-03  8.0083822777E-03  1.4894431121E-02  2.5351638131E-02
  3.9490362109E-02  5.6296213776E-02  7.3446353829E-02  8.7692868441E-02  9.5821131280E-02
  9.5821131280E-02  8.7692868441E-02  7.3446353829E-02  5.6296213776E-02  3.9490362109E-02
  2.5351638131E-02  1.4894431121E-02  8.0083822777E-03  3.9406571692E-03  1.7745796360E-03
  8.7321130816E-04  1.9390656423E-03  3.9406571692E-03  7.3290515790E-03  1.2474693526E-02
  1.9431886886E-02  2.7701484610E-02  3.6140495138E-02  4.3150728665E-02  4.7150375050E-02
  4.7150375050E-02  4.3150728665E-02  3.6140495138E-02  2.7701484610E-02  1.9431886886E-02
  1.2474693526E-02  7.3290515790E-03  3.9406571692E-03  1.9390656423E-03  8.7321130816E-04
  3.9322959061E-04  8.7321130816E-04  1.7745796360E-03  3.3004610969E-03  5.6176764802E-03
  8.7506802231E-03  1.2474693526E-02  1.6274997787E-02  1.9431886886E-02  2.1233030888E-02
  2.1233030888E-02  1.9431886886E-02  1.6274997787E-02  1.2474693526E-02  8.7506802231E-03
  5.6176764802E-03  3.3004610969E-03  1.7745796360E-03  8.7321130816E-04  3.9322959061E-04
  8.7321130816E-04  1.9390656423E-03  3.9406571692E-03  7.3290515790E-03  1.2474693526E-02
  1.9431886886E-02  2.7701484610E-02  3.6140495138E-02  4.3150728665E-02  4.7150375050E-02
  4.7150375050E-02  4.3150728665E-02  3.6140495138E-02  2.7701484610E-02  1.9431886886E-02
  1.2474693526E-02  7.3290515790E-03  3.9406571692E-03  1.9390656423E-03  8.7321130816E-04
  1.9390656423E-03  4.3059171704E-03  8.7506802231E-03  1.6274997787E-02  2.7701484610E-02
  4.3150728665E-02  6.1514316804E-02  8.0254105464E-02  9.5821131280E-02  1.0470280381E-01
  1.0470280381E-01  9.5821131280E-02  8.0254105464E-02  6.1514316804E-02  4.3150728665E-02
  2.7701484610E-02  1.6274997787E-02  8.7506802231E-03  4.3059171704E-03  1.9390656423E-03
  3.9406571692E-03  8.7506802231E-03  1.7783529348E-02  3.3074788861E-02  5.6296213776E-02
  8.7692868441E-02  1.2501218537E-01  1.6309603407E-01  1.9473205017E-01  2.1278178802E-01
  2.1278178802E-01  1.9473205017E-01  1.6309603407E-01  1.2501218537E-01  8.7692868441E-02
  5.6296213776E-02  3.3074788861E-02  1.7783529348E-02  8.7506802231E-03  3.9406571692E-03
  7.3290515790E-03  1.6274997787E-02  3.3074788861E-02  6.1514316804E-02  1.0470280381E-01
  1.6309603407E-01  2.3250455831E-01  3.0333500091E-01  3.6217340877E-01  3.9574330690E-01
  3.9574330690E-01  3.6217340877E-01  3.0333500091E-01  2.3250455831E-01  1.6309603407E-01
  1.0470280381E-01  6.1514316804E-02  3.3074788861E-02  1.6274997787E-02  7.3290515790E-03
  1.2474693526E-02  2.7701484610E-02  5.6296213776E-02  1.0470280381E-01  1.7821342567E-01
  2.7760386433E-01  3.9574330690E-01  5.1630298015E-01  6.1645115045E-01  6.7359008395E-01
  6.7359008395E-01  6.1645115045E-01  5.1630298015E-01  3.9574330690E-01  2.7760386433E-01
  1.7821342567E-01  1.0470280381E-01  5.6296213776E-02  2.7701484610E-02  1.2474693526E-02
  1.9431886886E-02  4.3150728665E-02  8.7692868441E-02  1.6309603407E-01  2.7760386433E-01
  4.3242480304E-01  6.1645115045E-01  8.0424750223E-01  9.6024876295E-01  1.0492543397E+00
  1.0492543397E+00  9.6024876295E-01  8.0424750223E-01  6.1645115045E-01  4.3242480304E-01
  2.7760386433E-01  1.6309603407E-01  8.7692868441E-02  4.3150728665E-02  1.9431886886E-02
  2.7701484610E-02  6.1514316804E-02  1.2501218537E-01  2.3250455831E-01  3.9574330690E-01
  6.1645115045E-01  8.7879330284E-01  1.1465098545E+00  1.3689003278E+00  1.4957838688E+00
  1.4957838688E+00  1.3689003278E+00  1.1465098545E+00  8.7879330284E-01  6.1645115045E-01
  3.9574330690E-01  2.3250455831E-01  1.2501218537E-01  6.1514316804E-02  2.7701484610E-02
  3.6140495138E-02  8.0254105464E-02  1.6309603407E-01  3.0333500091E-01  5.1630298015E-01
  8.0424750223E-01  1.1465098545E+00  1.4957838688E+00  1.7859236189E+00  1.9514611003E+00
  1.9514611003E+00  1.7859236189E+00  1.4957838688E+00  1.1465098545E+00  8.0424750223E-01
  5.1630298015E-01  3.0333500091E-01  1.6309603407E-01  8.0254105464E-02  3.6140495138E-02
  4.3150728665E-02  9.5821131280E-02  1.9473205017E-01  3.6217340877E-01  6.1645115045E-01
  9.6024876295E-01  1.3689003278E+00  1.7859236189E+00  2.1323422715E+00  2.3299893407E+00
  2.3299893407E+00  2.1323422715E+00  1.7859236189E+00  1.3689003278E+00  9.6024876295E-01
  6.1645115045E-01  3.6217340877E-01  1.9473205017E-01  9.5821131280E-02  4.3150728665E-02
  4.7150375050E-02  1.0470280381E-01  2.1278178802E-01  3.9574330690E-01  6.7359008395E-01
  1.0492543397E+00  1.4957838688E+00  1.9514611003E+00  2.3299893407E+00  2.5459563414E+00
  2.5459563414E+00  2.3299893407E+00  1.9514611003E+00  1.4957838688E+00  1.0492543397E+00
  6.7359008395E-01  3.9574330690E-01  2.1278178802E-01  1.0470280381E-01  4.7150375050E-02
  4.7150375050E-02  1.0470280381E-01  2.1278178802E-01  3.9574330690E-01  6.7359008395E-01
  1.0492543397E+00  1.4957838688E+00  1.9514611003E+00  2.3299893407E+00  2.5459563414E+00
  2.5459563414E+00  2.3299893407E+00  1.9514611003E+00  1.4957838688E+00  1.0492543397E+00
  6.7359008395E-01  3.9574330690E-01  2.1278178802E-01  1.0470280381E-01  4.7150375050E-02
  4.3150728665E-02  9.5821131280E-02  1.9473205017E-01  3.6217340877E-01  6.1645115045E-01
  9.6024876295E-01  1.3689003278E+00  1.7859236189E+00  2.1323422715E+00  2.3299893407E+00
  2.3299893407E+00  2.1323422715E+00  1.7859236189E+00  1.3689003278E+00  9.6024876295E-01
  6.1645115045E-01  3.6217340877E-01  1.9473205017E-01  9.5821131280E-02  4.3150728665E-02
  3.6140495138E-02  8.0254105464E-02  1.6309603407E-01  3.0333500091E-01  5.1630298015E-01
  8.0424750223E-01  1.1465098545E+00  1.4957838688E+00  1.7859236189E+00  1.9514611003E+00
  1.9514611003E+00  1.7859236189E+00  1.4957838688E+00  1.1465098545E+00  8.0424750223E-01
  5.1630298015E-01  3.0333500091E-01  1.6309603407E-01  8.0254105464E-02  3.6140495138E-02
  2.7701484610E-02  6.1514316804E-02  1.2501218537E-01  2.3250455831E-01  3.9574330690E-01
  6.1645115045E-01  8.7879330284E-01  1.1465098545E+00  1.3689003278E+00  1.4957838688E+00
  1.4957838688E+00  1.3689003278E+00  1.1465098545E+00  8.7879330284E-01  6.1645115045E-01
  3.9574330690E-01  2.3250455831E-01  1.2501218537E-01  6.1514316804E-02  2.7701484610E-02
  1.9431886886E-02  4.3150728665E-02  8.7692868441E-02  1.6309603407E-01  2.7760386433E-01
  4.3242480304E-01  6.1645115045E-01  8.0424750223E-01  9.6024876295E-01  1.0492543397E+00
  1.0492543397E+00  9.6024876295E-01  8.0424750223E-01  6.1645115045E-01  4.3242480304E-01
  2.7760386433E-01  1.6309603407E-01  8.7692868441E-02  4.3150728665E-02  1.9431886886E-02
  1.2474693526E-02  2.7701484610E-02  5.6296213776E-02  1.0470280381E-01  1.7821342567E-01
  2.7760386433E-01  3.9574330690E-01  5.1630298015E-01  6.1645115045E-01  6.7359008395E-01
  6.7359008395E-01  6.1645115045E-01  5.1630298015E-01  3.9574330690E-01  2.7760386433E-01
  1.7821342567E-01  1.0470280381E-01  5.6296213776E-02  2.7701484610E-02  1.2474693526E-02
  7.3290515790E-03  1.6274997787E-02  3.3074788861E-02  6.1514316804E-02  1.0470280381E-01
  1.6309603407E-01  2.3250455831E-01  3.0333500091E-01  3.6217340877E-01  3.9574330690E-01
  3.9574330690E-01  3.6217340877E-01  3.0333500091E-01  2.3250455831E-01  1.6309603407E-01
  1.0470280381E-01  6.1514316804E-02  3.3074788861E-02  1.6274997787E-02  7.3290515790E-03
  3.9406571692E-03  8.7506802231E-03  1.7783529348E-02  3.3074788861E-02  5.6296213776E-02
  8.7692868441E-02  1.2501218537E-01  1.6309603407E-01  1.9473205017E-01  2.1278178802E-01
  2.1278178802E-01  1.9473205017E-01  1.6309603407E-01  1.2501218537E-01  8.7692868441E-02
  5.6296213776E-02  3.3074788861E-02  1.7783529348E-02  8.7506802231E-03  3.9406571692E-03
  1.9390656423E-03  4.3059171704E-03  8.7506802231E-03  1.6274997787E-02  2.7701484610E-02
  4.3150728665E-02  6.1514316804E-02  8.0254105464E-02  9.5821131280E-02  1.0470280381E-01
  1.0470280381E-01  9.5821131280E-02  8.0254105464E-02  6.1514316804E-02  4.3150728665E-02
  2.7701484610E-02  1.6274997787E-02  8.7506802231E-03  4.3059171704E-03  1.9390656423E-03
  8.7321130816E-04  1.9390656423E-03  3.9406571692E-03  7.3290515790E-03  1.2474693526E-02
  1.9431886886E-02  2.7701484610E-02  3.6140495138E-02  4.3150728665E-02  4.7150375050E-02
  4.7150375050E-02  4.3150728665E-02  3.6140495138E-02  2.7701484610E-02  1.9431886886E-02
  1.2474693526E-02  7.3290515790E-03  3.9406571692E-03  1.9390656423E-03  8.7321130816E-04
  1.7745796360E-03  3.9406571692E-03  8.0083822777E-03  1.4894431121E-02  2.5351638131E-02
  3.9490362109E-02  5.6296213776E-02  7.3446353829E-02  8.7692868441E-02  9.5821131280E-02
  9.5821131280E-02  8.7692868441E-02  7.3446353829E-02  5.6296213776E-02  3.9490362109E-02
  2.5351638131E-02  1.4894431121E-02  8.0083822777E-03  3.9406571692E-03  1.7745796360E-03
  3.9406571692E-03  8.7506802231E-03  1.7783529348E-02  3.3074788861E-02  5.6296213776E-02
  8.7692868441E-02  1.2501218537E-01  1.6309603407E-01  1.9473205017E-01  2.1278178802E-01
  2.1278178802E-01  1.9473205017E-01  1.6309603407E-01  1.2501218537E-01  8.7692868441E-02
  5.6296213776E-02  3.3074788861E-02  1.7783529348E-02  8.7506802231E-03  3.9406571692E-03
  8.0083822777E-03  1.7783529348E-02  3.6140495138E-02  6.7216086449E-02  1.1440771966E-01
  1.7821342567E-01  2.5405543463E-01  3.3145115972E-01  3.9574330690E-01  4.3242480304E-01
  4.3242480304E-01  3.9574330690E-01  3.3145115972E-01  2.5405543463E-01  1.7821342567E-01
  1.1440771966E-01  6.7216086449E-02  3.6140495138E-02  1.7783529348E-02  8.0083822777E-03
  1.4894431121E-02  3.3074788861E-02  6.7216086449E-02  1.2501218537E-01  2.1278178802E-01
  3.3145115972E-01  4.7250631160E-01  6.1645115045E-01  7.3602523227E-01  8.0424750223E-01
  8.0424750223E-01  7.3602523227E-01  6.1645115045E-01  4.7250631160E-01  3.3145115972E-01
  2.1278178802E-01  1.2501218537E-01  6.7216086449E-02  3.3074788861E-02  1.4894431121E-02
  2.5351638131E-02  5.6296213776E-02  1.1440771966E-01  2.1278178802E-01  3.6217340877E-01
  5.6415916734E-01  8.0424750223E-01  1.0492543397E+00  1.2527799949E+00  1.3689003278E+00
  1.3689003278E+00  1.2527799949E+00  1.0492543397E+00  8.0424750223E-01  5.6415916734E-01
  3.6217340877E-01  2.1278178802E-01  1.1440771966E-01  5.6296213776E-02  2.5351638131E-02
  3.9490362109E-02  8.7692868441E-02  1.7821342567E-01  3.3145115972E-01  5.6415916734E-01
  8.7879330284E-01  1.2527799949E+00  1.6344282609E+00  1.9514611003E+00  2.1323422715E+00
  2.1323422715E+00  1.9514611003E+00  1.6344282609E+00  1.2527799949E+00  8.7879330284E-01
  5.6415916734E-01  3.3145115972E-01  1.7821342567E-01  8.7692868441E-02  3.9490362109E-02
  5.6296213776E-02  1.2501218537E-01  2.5405543463E-01  4.7250631160E-01  8.0424750223E-01
  1.2527799949E+00  1.7859236189E+00  2.3299893407E+00  2.7819413500E+00  3.0397998384E+00
  3.0397998384E+00  2.7819413500E+00  2.3299893407E+00  1.7859236189E+00  1.2527799949E+00
  8.0424750223E-01  4.7250631160E-01  2.5405543463E-01  1.2501218537E-01  5.6296213776E-02
  7.3446353829E-02  1.6309603407E-01  3.3145115972E-01  6.1645115045E-01  1.0492543397E+00
  1.6344282609E+00  2.3299893407E+00  3.0397998384E+00  3.6294350014E+00  3.9658477813E+00
  3.9658477813E+00  3.6294350014E+00  3.0397998384E+00  2.3299893407E+00  1.6344282609E+00
  1.0492543397E+00  6.1645115045E-01  3.3145115972E-01  1.6309603407E-01  7.3446353829E-02
  8.7692868441E-02  1.9473205017E-01  3.9574330690E-01  7.3602523227E-01  1.2527799949E+00
  1.9514611003E+00  2.7819413500E+00  3.6294350014E+00  4.3334427035E+00  4.7351100445E+00
  4.7351100445E+00  4.3334427035E+00  3.6294350014E+00  2.7819413500E+00  1.9514611003E+00
  1.2527799949E+00  7.3602523227E-01  3.9574330690E-01  1.9473205017E-01  8.7692868441E-02
  9.5821131280E-02  2.1278178802E-01  4.3242480304E-01  8.0424750223E-01  1.3689003278E+00
  2.1323422715E+00  3.0397998384E+00  3.9658477813E+00  4.7351100445E+00  5.1740079811E+00
  5.1740079811E+00  4.7351100445E+00  3.9658477813E+00  3.0397998384E+00  2.1323422715E+00
  1.3689003278E+00  8.0424750223E-01  4.3242480304E-01  2.1278178802E-01  9.5821131280E-02
  9.5821131280E-02  2.1278178802E-01  4.3242480304E-01  8.0424750223E-01  1.3689003278E+00
  2.1323422715E+00  3.0397998384E+00  3.9658477813E+00  4.7351100445E+00  5.1740079811E+00
  5.1740079811E+00  4.7351100445E+00  3.9658477813E+00  3.0397998384E+00  2.1323422715E+00
  1.3689003278E+00  8.0424750223E-01  4.3242480304E-01  2.1278178802E-01  9.5821131280E-02
  8.7692868441E-02  1.9473205017E-01  3.9574330690E-01  7.3602523227E-01  1.2527799949E+00
  1.9514611003E+00  2.7819413500E+00  3.6294350014E+00  4.3334427035E+00  4.7351100445E+00
  4.7351100445E+00  4.3334427035E+00  3.6294350014E+00  2.7819413500E+00  1.9514611003E+00
  1.2527799949E+00  7.3602523227E-01  3.9574330690E-01  1.9473205017E-01  8.7692868441E-02
  7.3446353829E-02  1.6309603407E-01  3.3145115972E-01  6.1645115045E-01  1.0492543397E+00
  1.6344282609E+00  2.3299893407E+00  3.0397998384E+00  3.6294350014E+00  3.9658477813E+00
  3.9658477813E+00  3.6294350014E+00  3.0397998384E+00  2.3299893407E+00  1.6344282609E+00
  1.0492543397E+00  6.1645115045E-01  3.3145115972E-01  1.6309603407E-01  7.3446353829E-02
  5.6296213776E-02  1.2501218537E-01  2.5405543463E-01  4.7250631160E-01  8.0424750223E-01
  1.2527799949E+00  1.7859236189E+00  2.3299893407E+00  2.7819413500E+00  3.0397998384E+00
  3.0397998384E+00  2.7819413500E+00  2.3299893407E+00  1.7859236189E+00  1.2527799949E+00
  8.0424750223E-01  4.7250631160E-01  2.5405543463E-01  1.2501218537E-01  5.6296213776E-02
  3.9490362109E-02  8.7692868441E-02  1.7821342567E-01  3.3145115972E-01  5.6415916734E-01
  8.7879330284E-01  1.2527799949E+00  1.6344282609E+00  1.9514611003E+00  2.1323422715E+00
  2.1323422715E+00  1.9514611003E+00  1.6344282609E+00  1.2527799949E+00  8.7879330284E-01
  5.6415916734E-01  3.3145115972E-01  1.7821342567E-01  8.7692868441E-02  3.9490362109E-02
  2.5351638131E-02  5.6296213776E-02  1.1440771966E-01  2.1278178802E-01  3.6217340877E-01
  5.6415916734E-01  8.0424750223E-01  1.0492543397E+00  1.2527799949E+00  1.3689003278E+00
  1.3689003278E+00  1.2527799949E+00  1.0492543397E+00  8.0424750223E-01  5.6415916734E-01
  3.6217340877E-01  2.1278178802E-01  1.1440771966E-01  5.6296213776E-02  2.5351638131E-02
  1.4894431121E-02  3.3074788861E-02  6.7216086449E-02  1.2501218537E-01  2.1278178802E-01
  3.3145115972E-01  4.7250631160E-01  6.1645115045E-01  7.3602523227E-01  8.0424750223E-01
  8.0424750223E-01  7.3602523227E-01  6.1645115045E-01  4.7250631160E-01  3.3145115972E-01
  2.1278178802E-01  1.2501218537E-01  6.7216086449E-02  3.3074788861E-02  1.4894431121E-02
  8.0083822777E-03  1.7783529348E-02  3.6140495138E-02  6.7216086449E-02  1.1440771966E-01
  1.7821342567E-01  2.5405543463E-01  3.3145115972E-01  3.9574330690E-01  4.3242480304E-01
  4.3242480304E-01  3.9574330690E-01  3.3145115972E-01  2.5405543463E-01  1.7821342567E-01
  1.1440771966E-01  6.7216086449E-02  3.6140495138E-02  1.7783529348E-02  8.0083822777E-03
  3.9406571692E-03  8.7506802231E-03  1.7783529348E-02  3.3074788861E-02  5.6296213776E-02
  8.7692868441E-02  1.2501218537E-01  1.6309603407E-01  1.9473205017E-01  2.1278178802E-01
  2.1278178802E-01  1.9473205017E-01  1.6309603407E-01  1.2501218537E-01  8.7692868441E-02
  5.6296213776E-02  3.3074788861E-02  1.7783529348E-02  8.7506802231E-03  3.9406571692E-03
  1.7745796360E-03  3.9406571692E-03  8.0083822777E-03  1.4894431121E-02  2.5351638131E-02
  3.9490362109E-02  5.6296213776E-02  7.3446353829E-02  8.7692868441E-02  9.5821131280E-02
  9.5821131280E-02  8.7692868441E-02  7.3446353829E-02  5.6296213776E-02  3.9490362109E-02
  2.5351638131E-02  1.4894431121E-02  8.0083822777E-03  3.9406571692E-03  1.7745796360E-03
  3.3004610969E-03  7.3290515790E-03  1.4894431121E-02  2.7701484610E-02  4.7150375050E-02
  7.3446353829E-02  1.0470280381E-01  1.3659958032E-01  1.6309603407E-01  1.7821342567E-01
  1.7821342567E-01  1.6309603407E-01  1.3659958032E-01  1.0470280381E-01  7.3446353829E-02
  4.7150375050E-02  2.7701484610E-02  1.4894431121E-02  7.3290515790E-03  3.3004610969E-03
  7.3290515790E-03  1.6274997787E-02  3.3074788861E-02  6.1514316804E-02  1.0470280381E-01
  1.6309603407E-01  2.3250455831E-01  3.0333500091E-01  3.6217340877E-01  3.9574330690E-01
  3.9574330690E-01  3.6217340877E-01  3.0333500091E-01  2.3250455831E-01  1.6309603407E-01
  1.0470280381E-01  6.1514316804E-02  3.3074788861E-02  1.6274997787E-02  7.3290515790E-03
  1.4894431121E-02  3.3074788861E-02  6.7216086449E-02  1.2501218537E-01  2.1278178802E-01
  3.3145115972E-01  4.7250631160E-01  6.1645115045E-01  7.3602523227E-01  8.0424750223E-01
  8.0424750223E-01  7.3602523227E-01  6.1645115045E-01  4.7250631160E-01  3.3145115972E-01
  2.1278178802E-01  1.2501218537E-01  6.7216086449E-02  3.3074788861E-02  1.4894431121E-02
  2.7701484610E-02  6.1514316804E-02  1.2501218537E-01  2.3250455831E-01  3.9574330690E-01
  6.1645115045E-01  8.7879330284E-01  1.1465098545E+00  1.3689003278E+00  1.4957838688E+00
  1.4957838688E+00  1.3689003278E+00  1.1465098545E+00  8.7879330284E-01  6.1645115045E-01
  3.9574330690E-01  2.3250455831E-01  1.2501218537E-01  6.1514316804E-02  2.7701484610E-02
  4.7150375050E-02  1.0470280381E-01  2.1278178802E-01  3.9574330690E-01  6.7359008395E-01
  1.0492543397E+00  1.4957838688E+00  1.9514611003E+00  2.3299893407E+00  2.5459563414E+00
  2.5459563414E+00  2.3299893407E+00  1.9514611003E+00  1.4957838688E+00  1.0492543397E+00
  6.7359008395E-01  3.9574330690E-01  2.1278178802E-01  1.0470280381E-01  4.7150375050E-02
  7.3446353829E-02  1.6309603407E-01  3.3145115972E-01  6.1645115045E-01  1.0492543397E+00
  1.6344282609E+00  2.3299893407E+00  3.0397998384E+00  3.6294350014E+00  3.9658477813E+00
  3.9658477813E+00  3.6294350014E+00  3.0397998384E+00  2.3299893407E+00  1.6344282609E+00
  1.0492543397E+00  6.1645115045E-01  3.3145115972E-01  1.6309603407E-01  7.3446353829E-02
  1.0470280381E-01  2.3250455831E-01  4.7250631160E-01  8.7879330284E-01  1.4957838688E+00
  2.3299893407E+00  3.3215592620E+00  4.3334427035E+00  5.1740079811E+00  5.6535874218E+00
  5.6535874218E+00  5.1740079811E+00  4.3334427035E+00  3.3215592620E+00  2.3299893407E+00
  1.4957838688E+00  8.7879330284E-01  4.7250631160E-01  2.3250455831E-01  1.0470280381E-01
  1.3659958032E-01  3.0333500091E-01  6.1645115045E-01  1.1465098545E+00  1.9514611003E+00
  3.0397998384E+00  4.3334427035E+00  5.6535874218E+00  6.7502234236E+00  7.3759024690E+00
  7.3759024690E+00  6.7502234236E+00  5.6535874218E+00  4.3334427035E+00  3.0397998384E+00
  1.9514611003E+00  1.1465098545E+00  6.1645115045E-01  3.0333500091E-01  1.3659958032E-01
  1.6309603407E-01  3.6217340877E-01  7.3602523227E-01  1.3689003278E+00  2.3299893407E+00
  3.6294350014E+00  5.1740079811E+00  6.7502234236E+00  8.0595757825E+00  8.8066188602E+00
  8.8066188602E+00  8.0595757825E+00  6.7502234236E+00  5.1740079811E+00  3.6294350014E+00
  2.3299893407E+00  1.3689003278E+00  7.3602523227E-01  3.6217340877E-01  1.6309603407E-01
  1.7821342567E-01  3.9574330690E-01  8.0424750223E-01  1.4957838688E+00  2.5459563414E+00
  3.9658477813E+00  5.6535874218E+00  7.3759024690E+00  8.8066188602E+00  9.6229054533E+00
  9.6229054533E+00  8.8066188602E+00  7.3759024690E+00  5.6535874218E+00  3.9658477813E+00
  2.5459563414E+00  1.4957838688E+00  8.0424750223E-01  3.9574330690E-01  1.7821342567E-01
  1.7821342567E-01  3.9574330690E-01  8.0424750223E-01  1.4957838688E+00  2.5459563414E+00
  3.9658477813E+00  5.6535874218E+00  7.3759024690E+00  8.8066188602E+00  9.6229054533E+00
  9.6229054533E+00  8.8066188602E+00  7.3759024690E+00  5.6535874218E+00  3.9658477813E+00
  2.5459563414E+00  1.4957838688E+00  8.0424750223E-01  3.9574330690E-01  1.7821342567E-01
  1.6309603407E-01  3.6217340877E-01  7.3602523227E-01  1.3689003278E+00  2.3299893407E+00
  3.6294350014E+00  5.1740079811E+00  6.7502234236E+00  8.0595757825E+00  8.8066188602E+00
  8.8066188602E+00  8.0595757825E+00  6.7502234236E+00  5.1740079811E+00  3.6294350014E+00
  2.3299893407E+00  1.3689003278E+00  7.3602523227E-01  3.6217340877E-01  1.6309603407E-01
  1.3659958032E-01  3.0333500091E-01  6.1645115045E-01  1.1465098545E+00  1.9514611003E+00
  3.0397998384E+00  4.3334427035E+00  5.6535874218E+00  6.7502234236E+00  7.3759024690E+00
  7.3759024690E+00  6.7502234236E+00  5.6535874218E+00  4.3334427035E+00  3.0397998384E+00
  1.9514611003E+00  1.1465098545E+00  6.1645115045E-01  3.0333500091E-01  1.3659958032E-01
  1.0470280381E-01  2.3250455831E-01  4.7250631160E-01  8.7879330284E-01  1.4957838688E+00
  2.3299893407E+00  3.3215592620E+00  4.3334427035E+00  5.1740079811E+00  5.6535874218E+00
  5.6535874218E+00  5.1740079811E+00  4.3334427035E+00  3.3215592620E+00  2.3299893407E+00
  1.4957838688E+00  8.7879330284E-01  4.7250631160E-01  2.3250455831E-01  1.0470280381E-01
  7.3446353829E-02  1.6309603407E-01  3.3145115972E-01  6.1645115045E-01  1.0492543397E+00
  1.6344282609E+00  2.3299893407E+00  3.0397998384E+00  3.6294350014E+00  3.9658477813E+00
  3.9658477813E+00  3.6294350014E+00  3.0397998384E+00  2.3299893407E+00  1.6344282609E+00
  1.0492543397E+00  6.1645115045E-01  3.3145115972E-01  1.6309603407E-01  7.3446353829E-02
  4.7150375050E-02  1.0470280381E-01  2.1278178802E-01  3.9574330690E-01  6.7359008395E-01
  1.0492543397E+00  1.4957838688E+00  1.9514611003E+00  2.3299893407E+00  2.5459563414E+00
  2.5459563414E+00  2.3299893407E+00  1.9514611003E+00  1.4957838688E+00  1.0492543397E+00
  6.7359008395E-01  3.9574330690E-01  2.1278178802E-01  1.0470280381E-01  4.7150375050E-02
  2.7701484610E-02  6.1514316804E-02  1.2501218537E-01  2.3250455831E-01  3.9574330690E-01
  6.1645115045E-01  8.7879330284E-01  1.1465098545E+00  1.3689003278E+00  1.4957838688E+00
  1.4957838688E+00  1.3689003278E+00  1.1465098545E+00  8.7879330284E-01  6.1645115045E-01
  3.9574330690E-01  2.3250455831E-01  1.2501218537E-01  6.1514316804E-02  2.7701484610E-02
  1.4894431121E-02  3.3074788861E-02  6.7216086449E-02  1.2501218537E-01  2.1278178802E-01
  3.3145115972E-01  4.7250631160E-01  6.1645115045E-01  7.3602523227E-01  8.0424750223E-01
  8.0424750223E-01  7.3602523227E-01  6.1645115045E-01  4.7250631160E-01  3.3145115972E-01
  2.1278178802E-01  1.2501218537E-01  6.7216086449E-02  3.3074788861E-02  1.4894431121E-02
  7.3290515790E-03  1.6274997787E-02  3.3074788861E-02  6.1514316804E-02  1.0470280381E-01
  1.6309603407E-01  2.3250455831E-01  3.0333500091E-01  3.6217340877E-01  3.9574330690E-01
  3.9574330690E-01  3.6217340877E-01  3.0333500091E-01  2.3250455831E-01  1.6309603407E-01
  1.0470280381E-01  6.1514316804E-02  3.3074788861E-02  1.6274997787E-02  7.3290515790E-03
  3.3004610969E-03  7.3290515790E-03  1.4894431121E-02  2.7701484610E-02  4.7150375050E-02
  7.3446353829E-02  1.0470280381E-01  1.3659958032E-01  1.6309603407E-01  1.7821342567E-01
  1.7821342567E-01  1.6309603407E-01  1.3659958032E-01  1.0470280381E-01  7.3446353829E-02
  4.7150375050E-02  2.7701484610E-02  1.4894431121E-02  7.3290515790E-03  3.3004610969E-03
  5.6176764802E-03  1.2474693526E-02  2.5351638131E-02  4.7150375050E-02  8.0254105464E-02
  1.2501218537E-01  1.7821342567E-01  2.3250455831E-01  2.7760386433E-01  3.0333500091E-01
  3.0333500091E-01  2.7760386433E-01  2.3250455831E-01  1.7821342567E-01  1.2501218537E-01
  8.0254105464E-02  4.7150375050E-02  2.5351638131E-02  1.2474693526E-02  5.6176764802E-03